% Model:              modelJ.mph
% Version:            COMSOL 5.2.0.166
% Date:               Jun 29 2017, 13:47
% Dimension:          1
% Nodes:              1
% Expressions:        60
% Description:        
% r                       (-muS*gNaS*u23z-DS*u3Tz)*e*2*pi*r/(pi*R^2*ka*E0) @ w=0.01 (-muS*gNaS*u23z-DS*u3Tz)*e*2*pi*r/(pi*R^2*ka*E0) @ w=0.012638 (-muS*gNaS*u23z-DS*u3Tz)*e*2*pi*r/(pi*R^2*ka*E0) @ w=0.015973 (-muS*gNaS*u23z-DS*u3Tz)*e*2*pi*r/(pi*R^2*ka*E0) @ w=0.020188 (-muS*gNaS*u23z-DS*u3Tz)*e*2*pi*r/(pi*R^2*ka*E0) @ w=0.025514 (-muS*gNaS*u23z-DS*u3Tz)*e*2*pi*r/(pi*R^2*ka*E0) @ w=0.032246 (-muS*gNaS*u23z-DS*u3Tz)*e*2*pi*r/(pi*R^2*ka*E0) @ w=0.040754 (-muS*gNaS*u23z-DS*u3Tz)*e*2*pi*r/(pi*R^2*ka*E0) @ w=0.051507 (-muS*gNaS*u23z-DS*u3Tz)*e*2*pi*r/(pi*R^2*ka*E0) @ w=0.065097 (-muS*gNaS*u23z-DS*u3Tz)*e*2*pi*r/(pi*R^2*ka*E0) @ w=0.082272 (-muS*gNaS*u23z-DS*u3Tz)*e*2*pi*r/(pi*R^2*ka*E0) @ w=0.10398 (-muS*gNaS*u23z-DS*u3Tz)*e*2*pi*r/(pi*R^2*ka*E0) @ w=0.13141 (-muS*gNaS*u23z-DS*u3Tz)*e*2*pi*r/(pi*R^2*ka*E0) @ w=0.16609 (-muS*gNaS*u23z-DS*u3Tz)*e*2*pi*r/(pi*R^2*ka*E0) @ w=0.20991 (-muS*gNaS*u23z-DS*u3Tz)*e*2*pi*r/(pi*R^2*ka*E0) @ w=0.26529 (-muS*gNaS*u23z-DS*u3Tz)*e*2*pi*r/(pi*R^2*ka*E0) @ w=0.33529 (-muS*gNaS*u23z-DS*u3Tz)*e*2*pi*r/(pi*R^2*ka*E0) @ w=0.42376 (-muS*gNaS*u23z-DS*u3Tz)*e*2*pi*r/(pi*R^2*ka*E0) @ w=0.53557 (-muS*gNaS*u23z-DS*u3Tz)*e*2*pi*r/(pi*R^2*ka*E0) @ w=0.67688 (-muS*gNaS*u23z-DS*u3Tz)*e*2*pi*r/(pi*R^2*ka*E0) @ w=0.85547 (-muS*gNaS*u23z-DS*u3Tz)*e*2*pi*r/(pi*R^2*ka*E0) @ w=1.0812 (-muS*gNaS*u23z-DS*u3Tz)*e*2*pi*r/(pi*R^2*ka*E0) @ w=1.3664 (-muS*gNaS*u23z-DS*u3Tz)*e*2*pi*r/(pi*R^2*ka*E0) @ w=1.727 (-muS*gNaS*u23z-DS*u3Tz)*e*2*pi*r/(pi*R^2*ka*E0) @ w=2.1826 (-muS*gNaS*u23z-DS*u3Tz)*e*2*pi*r/(pi*R^2*ka*E0) @ w=2.7585 (-muS*gNaS*u23z-DS*u3Tz)*e*2*pi*r/(pi*R^2*ka*E0) @ w=3.4864 (-muS*gNaS*u23z-DS*u3Tz)*e*2*pi*r/(pi*R^2*ka*E0) @ w=4.4062 (-muS*gNaS*u23z-DS*u3Tz)*e*2*pi*r/(pi*R^2*ka*E0) @ w=5.5688 (-muS*gNaS*u23z-DS*u3Tz)*e*2*pi*r/(pi*R^2*ka*E0) @ w=7.0381 (-muS*gNaS*u23z-DS*u3Tz)*e*2*pi*r/(pi*R^2*ka*E0) @ w=8.8951 (-muS*gNaS*u23z-DS*u3Tz)*e*2*pi*r/(pi*R^2*ka*E0) @ w=11.242 (-muS*gNaS*u23z-DS*u3Tz)*e*2*pi*r/(pi*R^2*ka*E0) @ w=14.208 (-muS*gNaS*u23z-DS*u3Tz)*e*2*pi*r/(pi*R^2*ka*E0) @ w=17.957 (-muS*gNaS*u23z-DS*u3Tz)*e*2*pi*r/(pi*R^2*ka*E0) @ w=22.695 (-muS*gNaS*u23z-DS*u3Tz)*e*2*pi*r/(pi*R^2*ka*E0) @ w=28.683 (-muS*gNaS*u23z-DS*u3Tz)*e*2*pi*r/(pi*R^2*ka*E0) @ w=36.251 (-muS*gNaS*u23z-DS*u3Tz)*e*2*pi*r/(pi*R^2*ka*E0) @ w=45.816 (-muS*gNaS*u23z-DS*u3Tz)*e*2*pi*r/(pi*R^2*ka*E0) @ w=57.904 (-muS*gNaS*u23z-DS*u3Tz)*e*2*pi*r/(pi*R^2*ka*E0) @ w=73.182 (-muS*gNaS*u23z-DS*u3Tz)*e*2*pi*r/(pi*R^2*ka*E0) @ w=92.491 (-muS*gNaS*u23z-DS*u3Tz)*e*2*pi*r/(pi*R^2*ka*E0) @ w=116.9 (-muS*gNaS*u23z-DS*u3Tz)*e*2*pi*r/(pi*R^2*ka*E0) @ w=147.74 (-muS*gNaS*u23z-DS*u3Tz)*e*2*pi*r/(pi*R^2*ka*E0) @ w=186.72 (-muS*gNaS*u23z-DS*u3Tz)*e*2*pi*r/(pi*R^2*ka*E0) @ w=235.98 (-muS*gNaS*u23z-DS*u3Tz)*e*2*pi*r/(pi*R^2*ka*E0) @ w=298.25 (-muS*gNaS*u23z-DS*u3Tz)*e*2*pi*r/(pi*R^2*ka*E0) @ w=376.94 (-muS*gNaS*u23z-DS*u3Tz)*e*2*pi*r/(pi*R^2*ka*E0) @ w=476.39 (-muS*gNaS*u23z-DS*u3Tz)*e*2*pi*r/(pi*R^2*ka*E0) @ w=602.09 (-muS*gNaS*u23z-DS*u3Tz)*e*2*pi*r/(pi*R^2*ka*E0) @ w=760.95 (-muS*gNaS*u23z-DS*u3Tz)*e*2*pi*r/(pi*R^2*ka*E0) @ w=961.72 (-muS*gNaS*u23z-DS*u3Tz)*e*2*pi*r/(pi*R^2*ka*E0) @ w=1215.5 (-muS*gNaS*u23z-DS*u3Tz)*e*2*pi*r/(pi*R^2*ka*E0) @ w=1536.2 (-muS*gNaS*u23z-DS*u3Tz)*e*2*pi*r/(pi*R^2*ka*E0) @ w=1941.5 (-muS*gNaS*u23z-DS*u3Tz)*e*2*pi*r/(pi*R^2*ka*E0) @ w=2453.8 (-muS*gNaS*u23z-DS*u3Tz)*e*2*pi*r/(pi*R^2*ka*E0) @ w=3101.2 (-muS*gNaS*u23z-DS*u3Tz)*e*2*pi*r/(pi*R^2*ka*E0) @ w=3919.4 (-muS*gNaS*u23z-DS*u3Tz)*e*2*pi*r/(pi*R^2*ka*E0) @ w=4953.5 (-muS*gNaS*u23z-DS*u3Tz)*e*2*pi*r/(pi*R^2*ka*E0) @ w=6260.5 (-muS*gNaS*u23z-DS*u3Tz)*e*2*pi*r/(pi*R^2*ka*E0) @ w=7912.3 (-muS*gNaS*u23z-DS*u3Tz)*e*2*pi*r/(pi*R^2*ka*E0) @ w=10000
0                         0.0011016598965398377-2.176720671382296E-5i       0.001101397381404459-2.7503998437097387E-5i       0.0011009783066695642-3.474787229357856E-5i       0.0011003095351026595-4.388980271220267E-5i       0.0010992428811328395-5.541716765122531E-5i       0.001097543128852138-6.993238511737735E-5i        0.0010948383211446305-8.816972052253689E-5i       0.0010905438002084388-1.1100330211941409E-4i      0.0010837494196784556-1.3943178513476146E-4i      0.001073060212436914-1.7451137965103058E-4i       0.0010563912745065842-2.1718666493217105E-4i      0.001030752108073618-2.679395078248886E-4i        9.921378945432235E-4-3.2615905425240467E-4i       9.35792847935098E-4-3.8919101395361603E-4i        8.572677188356818E-4-4.512736001136962E-4i        7.545952541618426E-4-5.030971813565404E-4i        6.310957367073769E-4-5.332129266150988E-4i        4.968862727939058E-4-5.319015583384742E-4i        3.668569603816875E-4-4.957654433886552E-4i        2.5555091286014143E-4-4.2951345265399585E-4i      1.7263442729119048E-4-3.4351812560405164E-4i      1.2180986232668877E-4-2.497477458735275E-4i       1.0219510030284567E-4-1.5928557258569037E-4i      1.0950212212164725E-4-8.174935713036968E-5i       1.3608491878779874E-4-2.469131811933618E-5i       1.7133685119165016E-4+8.238626028956767E-6i       2.0410589375428198E-4+1.914096574902352E-5i       2.2648866171970624E-4+1.5428311797388993E-5i      2.3645015192339672E-4+6.574660972914342E-6i       2.3741551575653778E-4-7.75825325489199E-8i        2.3512274869674047E-4-1.9008749387078623E-6i      2.3385091495490288E-4-4.708278252960771E-7i       2.3461120642290833E-4+1.3133673727555473E-6i      2.3618848890599042E-4+1.8866900767456305E-6i      2.3731734933564043E-4+1.4619657603701359E-6i      2.3771991904520694E-4+8.324094723510136E-7i       2.3771002376937115E-4+4.24241845739879E-7i        2.375986974387188E-4+2.694927414270256E-7i        2.375369341725155E-4+2.6251726829940215E-7i       2.3755156934504378E-4+2.923785332310125E-7i       2.3760321305023421E-4+3.027575270130863E-7i       2.3765492936643536E-4+2.9424611646698326E-7i      2.376990626781753E-4+2.8218124215050093E-7i       2.3774029029609333E-4+2.713097887875567E-7i       2.3778019620443526E-4+2.6000754433736517E-7i      2.3781752882680193E-4+2.4758589341930125E-7i      2.3785106134345839E-4+2.3469765937256642E-7i      2.3787994205504937E-4+2.2257104750750956E-7i      2.3790376937496307E-4+2.128839859834227E-7i       2.3792273900969993E-4+2.0755532818661775E-7i      2.3793765489126803E-4+2.0846644042085744E-7i      2.3794974844252908E-4+2.1721753467489463E-7i      2.3796035843826055E-4+2.350262775740306E-7i       2.3797058477981864E-4+2.6285548618027894E-7i      2.3798102246353847E-4+3.017503404603376E-7i       2.3799171484818957E-4+3.532809450390698E-7i       2.38002304410689E-4+4.199567926047811E-7i         2.3801227708079037E-4+5.055207870842177E-7i       2.3802119959035148E-4+6.151156614115392E-7i       2.380288505908755E-4+7.554082277839793E-7i
