% Model:              modelJ.mph
% Version:            COMSOL 5.2.0.166
% Date:               Jun 29 2017, 14:24
% Dimension:          1
% Nodes:              1
% Expressions:        60
% Description:        
% r                       (-muS*gNaS*u23z-DS*u3Tz)*e*2*pi*r/(pi*R^2*ka*E0) @ w=0.01 (-muS*gNaS*u23z-DS*u3Tz)*e*2*pi*r/(pi*R^2*ka*E0) @ w=0.012638 (-muS*gNaS*u23z-DS*u3Tz)*e*2*pi*r/(pi*R^2*ka*E0) @ w=0.015973 (-muS*gNaS*u23z-DS*u3Tz)*e*2*pi*r/(pi*R^2*ka*E0) @ w=0.020188 (-muS*gNaS*u23z-DS*u3Tz)*e*2*pi*r/(pi*R^2*ka*E0) @ w=0.025514 (-muS*gNaS*u23z-DS*u3Tz)*e*2*pi*r/(pi*R^2*ka*E0) @ w=0.032246 (-muS*gNaS*u23z-DS*u3Tz)*e*2*pi*r/(pi*R^2*ka*E0) @ w=0.040754 (-muS*gNaS*u23z-DS*u3Tz)*e*2*pi*r/(pi*R^2*ka*E0) @ w=0.051507 (-muS*gNaS*u23z-DS*u3Tz)*e*2*pi*r/(pi*R^2*ka*E0) @ w=0.065097 (-muS*gNaS*u23z-DS*u3Tz)*e*2*pi*r/(pi*R^2*ka*E0) @ w=0.082272 (-muS*gNaS*u23z-DS*u3Tz)*e*2*pi*r/(pi*R^2*ka*E0) @ w=0.10398 (-muS*gNaS*u23z-DS*u3Tz)*e*2*pi*r/(pi*R^2*ka*E0) @ w=0.13141 (-muS*gNaS*u23z-DS*u3Tz)*e*2*pi*r/(pi*R^2*ka*E0) @ w=0.16609 (-muS*gNaS*u23z-DS*u3Tz)*e*2*pi*r/(pi*R^2*ka*E0) @ w=0.20991 (-muS*gNaS*u23z-DS*u3Tz)*e*2*pi*r/(pi*R^2*ka*E0) @ w=0.26529 (-muS*gNaS*u23z-DS*u3Tz)*e*2*pi*r/(pi*R^2*ka*E0) @ w=0.33529 (-muS*gNaS*u23z-DS*u3Tz)*e*2*pi*r/(pi*R^2*ka*E0) @ w=0.42376 (-muS*gNaS*u23z-DS*u3Tz)*e*2*pi*r/(pi*R^2*ka*E0) @ w=0.53557 (-muS*gNaS*u23z-DS*u3Tz)*e*2*pi*r/(pi*R^2*ka*E0) @ w=0.67688 (-muS*gNaS*u23z-DS*u3Tz)*e*2*pi*r/(pi*R^2*ka*E0) @ w=0.85547 (-muS*gNaS*u23z-DS*u3Tz)*e*2*pi*r/(pi*R^2*ka*E0) @ w=1.0812 (-muS*gNaS*u23z-DS*u3Tz)*e*2*pi*r/(pi*R^2*ka*E0) @ w=1.3664 (-muS*gNaS*u23z-DS*u3Tz)*e*2*pi*r/(pi*R^2*ka*E0) @ w=1.727 (-muS*gNaS*u23z-DS*u3Tz)*e*2*pi*r/(pi*R^2*ka*E0) @ w=2.1826 (-muS*gNaS*u23z-DS*u3Tz)*e*2*pi*r/(pi*R^2*ka*E0) @ w=2.7585 (-muS*gNaS*u23z-DS*u3Tz)*e*2*pi*r/(pi*R^2*ka*E0) @ w=3.4864 (-muS*gNaS*u23z-DS*u3Tz)*e*2*pi*r/(pi*R^2*ka*E0) @ w=4.4062 (-muS*gNaS*u23z-DS*u3Tz)*e*2*pi*r/(pi*R^2*ka*E0) @ w=5.5688 (-muS*gNaS*u23z-DS*u3Tz)*e*2*pi*r/(pi*R^2*ka*E0) @ w=7.0381 (-muS*gNaS*u23z-DS*u3Tz)*e*2*pi*r/(pi*R^2*ka*E0) @ w=8.8951 (-muS*gNaS*u23z-DS*u3Tz)*e*2*pi*r/(pi*R^2*ka*E0) @ w=11.242 (-muS*gNaS*u23z-DS*u3Tz)*e*2*pi*r/(pi*R^2*ka*E0) @ w=14.208 (-muS*gNaS*u23z-DS*u3Tz)*e*2*pi*r/(pi*R^2*ka*E0) @ w=17.957 (-muS*gNaS*u23z-DS*u3Tz)*e*2*pi*r/(pi*R^2*ka*E0) @ w=22.695 (-muS*gNaS*u23z-DS*u3Tz)*e*2*pi*r/(pi*R^2*ka*E0) @ w=28.683 (-muS*gNaS*u23z-DS*u3Tz)*e*2*pi*r/(pi*R^2*ka*E0) @ w=36.251 (-muS*gNaS*u23z-DS*u3Tz)*e*2*pi*r/(pi*R^2*ka*E0) @ w=45.816 (-muS*gNaS*u23z-DS*u3Tz)*e*2*pi*r/(pi*R^2*ka*E0) @ w=57.904 (-muS*gNaS*u23z-DS*u3Tz)*e*2*pi*r/(pi*R^2*ka*E0) @ w=73.182 (-muS*gNaS*u23z-DS*u3Tz)*e*2*pi*r/(pi*R^2*ka*E0) @ w=92.491 (-muS*gNaS*u23z-DS*u3Tz)*e*2*pi*r/(pi*R^2*ka*E0) @ w=116.9 (-muS*gNaS*u23z-DS*u3Tz)*e*2*pi*r/(pi*R^2*ka*E0) @ w=147.74 (-muS*gNaS*u23z-DS*u3Tz)*e*2*pi*r/(pi*R^2*ka*E0) @ w=186.72 (-muS*gNaS*u23z-DS*u3Tz)*e*2*pi*r/(pi*R^2*ka*E0) @ w=235.98 (-muS*gNaS*u23z-DS*u3Tz)*e*2*pi*r/(pi*R^2*ka*E0) @ w=298.25 (-muS*gNaS*u23z-DS*u3Tz)*e*2*pi*r/(pi*R^2*ka*E0) @ w=376.94 (-muS*gNaS*u23z-DS*u3Tz)*e*2*pi*r/(pi*R^2*ka*E0) @ w=476.39 (-muS*gNaS*u23z-DS*u3Tz)*e*2*pi*r/(pi*R^2*ka*E0) @ w=602.09 (-muS*gNaS*u23z-DS*u3Tz)*e*2*pi*r/(pi*R^2*ka*E0) @ w=760.95 (-muS*gNaS*u23z-DS*u3Tz)*e*2*pi*r/(pi*R^2*ka*E0) @ w=961.72 (-muS*gNaS*u23z-DS*u3Tz)*e*2*pi*r/(pi*R^2*ka*E0) @ w=1215.5 (-muS*gNaS*u23z-DS*u3Tz)*e*2*pi*r/(pi*R^2*ka*E0) @ w=1536.2 (-muS*gNaS*u23z-DS*u3Tz)*e*2*pi*r/(pi*R^2*ka*E0) @ w=1941.5 (-muS*gNaS*u23z-DS*u3Tz)*e*2*pi*r/(pi*R^2*ka*E0) @ w=2453.8 (-muS*gNaS*u23z-DS*u3Tz)*e*2*pi*r/(pi*R^2*ka*E0) @ w=3101.2 (-muS*gNaS*u23z-DS*u3Tz)*e*2*pi*r/(pi*R^2*ka*E0) @ w=3919.4 (-muS*gNaS*u23z-DS*u3Tz)*e*2*pi*r/(pi*R^2*ka*E0) @ w=4953.5 (-muS*gNaS*u23z-DS*u3Tz)*e*2*pi*r/(pi*R^2*ka*E0) @ w=6260.5 (-muS*gNaS*u23z-DS*u3Tz)*e*2*pi*r/(pi*R^2*ka*E0) @ w=7912.3 (-muS*gNaS*u23z-DS*u3Tz)*e*2*pi*r/(pi*R^2*ka*E0) @ w=10000
0                         0.001652844330889518-2.2547764474382394E-5i       0.0016526621099260317-2.8493961816104015E-5i      0.001652371121726139-3.600600830662091E-5i        0.0016519065157137535-4.5493952481097716E-5i      0.0016511648863848647-5.747288502751145E-5i       0.0016499815259307007-7.258746363230932E-5i       0.0016480945201580483-9.16396963438117E-5i        0.0016450884955863127-1.1561765369631732E-4i      0.0016403075256884376-1.4571909954078107E-4i      0.0016327229146848698-1.8335664571289404E-4i      0.0016207390515868847-2.3011701731772463E-4i      0.0016019245770557517-2.876222849883129E-4i       0.001572679839635757-3.572024930553182E-4i        0.0015279215865989797-4.3924420398404356E-4i      0.0014610208045304919-5.320704368095372E-4i       0.0013644806418597652-6.303546471680202E-4i       0.001232033780699517-7.23576480623445E-4i         0.0010624490774179408-7.959243916016389E-4i       8.637163851989494E-4-8.29528061162855E-4i         6.541729609064862E-4-8.111805579782671E-4i        4.5782992364592237E-4-7.387856437400877E-4i       2.9618334203876433E-4-6.224094387921973E-4i       1.8241917650662902E-4-4.795753108531309E-4i       1.207074594785147E-4-3.295394702407683E-4i        1.0802975455009595E-4-1.9014165613943004E-4i      1.3537552387663413E-4-7.648532685257498E-5i       1.8821805303366097E-4+9.931248385262073E-7i       2.48533704640126E-4+3.953366843858477E-5i         2.9962633519756257E-4+4.568061470712239E-5i       3.316630408473885E-4+3.290718238537502E-5i        3.4423978712755973E-4+1.5775814518404246E-5i      3.442387859722691E-4+3.991292239555039E-6i        3.403846181183314E-4-1.8122313832386843E-7i       3.381168681706922E-4+1.5437478787171295E-7i       3.3816065071641505E-4+1.1170624268448816E-6i      3.3888162725473575E-4+1.1501254755723886E-6i      3.391647466747965E-4+7.183195283530829E-7i        3.3909085933286925E-4+4.717972761246167E-7i       3.3902897611646826E-4+4.5815283775068436E-7i      3.3907061039724606E-4+4.959732520752985E-7i       3.391546841648139E-4+5.067940352454683E-7i        3.392374705115501E-4+4.967014736915427E-7i        3.3931197868134036E-4+4.828766160207731E-7i       3.393833147492397E-4+4.7036258544496027E-7i       3.394535162526241E-4+4.57522264985035E-7i         3.395217709931958E-4+4.4313796944703257E-7i       3.3958671306845775E-4+4.268737977511375E-7i       3.3964650729437283E-4+4.0913983125629157E-7i      3.396992650408887E-4+3.915215350593853E-7i        3.3974370231329535E-4+3.7667908014695387E-7i      3.397794803070365E-4+3.679274633105198E-7i        3.3980725266129615E-4+3.6880125033666447E-7i      3.3982848416122763E-4+3.8269914376340964E-7i      3.398450894700724E-4+4.1267280753636193E-7i       3.3985892778976153E-4+4.6148480684880175E-7i      3.3987134644819955E-4+5.319972377364046E-7i       3.3988295246635417E-4+6.278269731251751E-7i       3.3989370149998497E-4+7.540808229590793E-7i       3.399032561950528E-4+9.179560417275629E-7i        3.399113722696829E-4+1.129116301894413E-6i
