% Model:              modelJ.mph
% Version:            COMSOL 5.2.0.166
% Date:               Jun 29 2017, 14:49
% Dimension:          1
% Nodes:              1
% Expressions:        60
% Description:        
% r                       (-muS*gNaS*u23z-DS*u3Tz)*e*2*pi*r/(pi*R^2*ka*E0) @ w=0.01 (-muS*gNaS*u23z-DS*u3Tz)*e*2*pi*r/(pi*R^2*ka*E0) @ w=0.012638 (-muS*gNaS*u23z-DS*u3Tz)*e*2*pi*r/(pi*R^2*ka*E0) @ w=0.015973 (-muS*gNaS*u23z-DS*u3Tz)*e*2*pi*r/(pi*R^2*ka*E0) @ w=0.020188 (-muS*gNaS*u23z-DS*u3Tz)*e*2*pi*r/(pi*R^2*ka*E0) @ w=0.025514 (-muS*gNaS*u23z-DS*u3Tz)*e*2*pi*r/(pi*R^2*ka*E0) @ w=0.032246 (-muS*gNaS*u23z-DS*u3Tz)*e*2*pi*r/(pi*R^2*ka*E0) @ w=0.040754 (-muS*gNaS*u23z-DS*u3Tz)*e*2*pi*r/(pi*R^2*ka*E0) @ w=0.051507 (-muS*gNaS*u23z-DS*u3Tz)*e*2*pi*r/(pi*R^2*ka*E0) @ w=0.065097 (-muS*gNaS*u23z-DS*u3Tz)*e*2*pi*r/(pi*R^2*ka*E0) @ w=0.082272 (-muS*gNaS*u23z-DS*u3Tz)*e*2*pi*r/(pi*R^2*ka*E0) @ w=0.10398 (-muS*gNaS*u23z-DS*u3Tz)*e*2*pi*r/(pi*R^2*ka*E0) @ w=0.13141 (-muS*gNaS*u23z-DS*u3Tz)*e*2*pi*r/(pi*R^2*ka*E0) @ w=0.16609 (-muS*gNaS*u23z-DS*u3Tz)*e*2*pi*r/(pi*R^2*ka*E0) @ w=0.20991 (-muS*gNaS*u23z-DS*u3Tz)*e*2*pi*r/(pi*R^2*ka*E0) @ w=0.26529 (-muS*gNaS*u23z-DS*u3Tz)*e*2*pi*r/(pi*R^2*ka*E0) @ w=0.33529 (-muS*gNaS*u23z-DS*u3Tz)*e*2*pi*r/(pi*R^2*ka*E0) @ w=0.42376 (-muS*gNaS*u23z-DS*u3Tz)*e*2*pi*r/(pi*R^2*ka*E0) @ w=0.53557 (-muS*gNaS*u23z-DS*u3Tz)*e*2*pi*r/(pi*R^2*ka*E0) @ w=0.67688 (-muS*gNaS*u23z-DS*u3Tz)*e*2*pi*r/(pi*R^2*ka*E0) @ w=0.85547 (-muS*gNaS*u23z-DS*u3Tz)*e*2*pi*r/(pi*R^2*ka*E0) @ w=1.0812 (-muS*gNaS*u23z-DS*u3Tz)*e*2*pi*r/(pi*R^2*ka*E0) @ w=1.3664 (-muS*gNaS*u23z-DS*u3Tz)*e*2*pi*r/(pi*R^2*ka*E0) @ w=1.727 (-muS*gNaS*u23z-DS*u3Tz)*e*2*pi*r/(pi*R^2*ka*E0) @ w=2.1826 (-muS*gNaS*u23z-DS*u3Tz)*e*2*pi*r/(pi*R^2*ka*E0) @ w=2.7585 (-muS*gNaS*u23z-DS*u3Tz)*e*2*pi*r/(pi*R^2*ka*E0) @ w=3.4864 (-muS*gNaS*u23z-DS*u3Tz)*e*2*pi*r/(pi*R^2*ka*E0) @ w=4.4062 (-muS*gNaS*u23z-DS*u3Tz)*e*2*pi*r/(pi*R^2*ka*E0) @ w=5.5688 (-muS*gNaS*u23z-DS*u3Tz)*e*2*pi*r/(pi*R^2*ka*E0) @ w=7.0381 (-muS*gNaS*u23z-DS*u3Tz)*e*2*pi*r/(pi*R^2*ka*E0) @ w=8.8951 (-muS*gNaS*u23z-DS*u3Tz)*e*2*pi*r/(pi*R^2*ka*E0) @ w=11.242 (-muS*gNaS*u23z-DS*u3Tz)*e*2*pi*r/(pi*R^2*ka*E0) @ w=14.208 (-muS*gNaS*u23z-DS*u3Tz)*e*2*pi*r/(pi*R^2*ka*E0) @ w=17.957 (-muS*gNaS*u23z-DS*u3Tz)*e*2*pi*r/(pi*R^2*ka*E0) @ w=22.695 (-muS*gNaS*u23z-DS*u3Tz)*e*2*pi*r/(pi*R^2*ka*E0) @ w=28.683 (-muS*gNaS*u23z-DS*u3Tz)*e*2*pi*r/(pi*R^2*ka*E0) @ w=36.251 (-muS*gNaS*u23z-DS*u3Tz)*e*2*pi*r/(pi*R^2*ka*E0) @ w=45.816 (-muS*gNaS*u23z-DS*u3Tz)*e*2*pi*r/(pi*R^2*ka*E0) @ w=57.904 (-muS*gNaS*u23z-DS*u3Tz)*e*2*pi*r/(pi*R^2*ka*E0) @ w=73.182 (-muS*gNaS*u23z-DS*u3Tz)*e*2*pi*r/(pi*R^2*ka*E0) @ w=92.491 (-muS*gNaS*u23z-DS*u3Tz)*e*2*pi*r/(pi*R^2*ka*E0) @ w=116.9 (-muS*gNaS*u23z-DS*u3Tz)*e*2*pi*r/(pi*R^2*ka*E0) @ w=147.74 (-muS*gNaS*u23z-DS*u3Tz)*e*2*pi*r/(pi*R^2*ka*E0) @ w=186.72 (-muS*gNaS*u23z-DS*u3Tz)*e*2*pi*r/(pi*R^2*ka*E0) @ w=235.98 (-muS*gNaS*u23z-DS*u3Tz)*e*2*pi*r/(pi*R^2*ka*E0) @ w=298.25 (-muS*gNaS*u23z-DS*u3Tz)*e*2*pi*r/(pi*R^2*ka*E0) @ w=376.94 (-muS*gNaS*u23z-DS*u3Tz)*e*2*pi*r/(pi*R^2*ka*E0) @ w=476.39 (-muS*gNaS*u23z-DS*u3Tz)*e*2*pi*r/(pi*R^2*ka*E0) @ w=602.09 (-muS*gNaS*u23z-DS*u3Tz)*e*2*pi*r/(pi*R^2*ka*E0) @ w=760.95 (-muS*gNaS*u23z-DS*u3Tz)*e*2*pi*r/(pi*R^2*ka*E0) @ w=961.72 (-muS*gNaS*u23z-DS*u3Tz)*e*2*pi*r/(pi*R^2*ka*E0) @ w=1215.5 (-muS*gNaS*u23z-DS*u3Tz)*e*2*pi*r/(pi*R^2*ka*E0) @ w=1536.2 (-muS*gNaS*u23z-DS*u3Tz)*e*2*pi*r/(pi*R^2*ka*E0) @ w=1941.5 (-muS*gNaS*u23z-DS*u3Tz)*e*2*pi*r/(pi*R^2*ka*E0) @ w=2453.8 (-muS*gNaS*u23z-DS*u3Tz)*e*2*pi*r/(pi*R^2*ka*E0) @ w=3101.2 (-muS*gNaS*u23z-DS*u3Tz)*e*2*pi*r/(pi*R^2*ka*E0) @ w=3919.4 (-muS*gNaS*u23z-DS*u3Tz)*e*2*pi*r/(pi*R^2*ka*E0) @ w=4953.5 (-muS*gNaS*u23z-DS*u3Tz)*e*2*pi*r/(pi*R^2*ka*E0) @ w=6260.5 (-muS*gNaS*u23z-DS*u3Tz)*e*2*pi*r/(pi*R^2*ka*E0) @ w=7912.3 (-muS*gNaS*u23z-DS*u3Tz)*e*2*pi*r/(pi*R^2*ka*E0) @ w=10000
0                         0.002755114656085988-1.962153961680657E-5i        0.0027550343356995337-2.479798515985308E-5i       0.0027549060474740855-3.133955179272117E-5i       0.0027547011524865534-3.9605737036293567E-5i      0.002754373925778456-5.005019147788355E-5i        0.002753851382016733-6.324484905307849E-5i        0.002753017071814353-7.990970088456756E-5i        0.002751685323945617-1.0094896985749523E-4i       0.0027495604154403547-1.2749390742579667E-4i      0.002746172150936381-1.6095103109702448E-4i       0.0027407749805352048-2.0305143249990911E-4i      0.0027321919423159012-2.558900571460398E-4i       0.002718578090639194-3.219304035520038E-4i        0.002697073972191968-4.039246241897549E-4i        0.0026633279837668146-5.046542947348214E-4i       0.0026109111721187976-6.263282001405053E-4i       0.002530777559770239-7.693947579831686E-4i        0.0024112064726201842-9.305177190784964E-4i       0.0022391145613988315-0.0010997462807541996i      0.0020039481471605955-0.001257846661446698i       0.0017045963532890049-0.0013763817884595703i      0.0013567632315198803-0.0014238932647933286i      9.94498151680161E-4-0.0013782388060368722i        6.611213086490542E-4-0.0012380004543533607i       3.940613308402106E-4-0.0010237089316033898i       2.1451803111485364E-4-7.685195127201866E-4i       1.2682900552190676E-4-5.072324569770818E-4i       1.2273598231233302E-4-2.7047892017975666E-4i      1.843863401124751E-4-8.285747007340325E-5i        2.855086621362391E-4+3.967351121139051E-5i        3.9482080159280227E-4+9.441092368302136E-5i       4.8412695172745496E-4+9.435104212374203E-5i       5.375810078540543E-4+6.38738760804002E-5i         5.558016173081838E-4+2.8591863690100976E-5i       5.518877220348083E-4+5.13865002791421E-6i         5.417954992188403E-4-3.1218880436373386E-6i       5.353903444476545E-4-2.272908569263204E-6i        5.340394621978176E-4+2.947132213273367E-7i        5.347850633817019E-4+1.330444673668186E-6i        5.353796091099864E-4+1.2582461335311896E-6i       5.355602617634707E-4+1.0894691283044911E-6i       5.356755833577387E-4+1.0471450236026655E-6i       5.358214525124805E-4+1.0279418938830875E-6i       5.35969513249194E-4+1.002267690416947E-6i         5.361127406005535E-4+9.76485105056939E-7i         5.36251368192935E-4+9.516622619689862E-7i         5.363849875093577E-4+9.286450476970829E-7i        5.365139373206642E-4+9.08061021894865E-7i         5.366382055199175E-4+8.896910390826881E-7i        5.367564197456776E-4+8.732949730724164E-7i        5.368658698718275E-4+8.599663094136039E-7i        5.369634883343296E-4+8.530180454601051E-7i        5.370469802004862E-4+8.579534018171054E-7i        5.371154451967199E-4+8.819060546700221E-7i        5.371694812999988E-4+9.330859115578405E-7i        5.372109599358167E-4+1.0204112803129728E-6i       5.372425636064183E-4+1.1533766020814825E-6i       5.372671058235393E-4+1.342332535374148E-6i        5.372869152856482E-4+1.5992909377617178E-6i       5.373035100571094E-4+1.9391783965774694E-6i
