% Model:              modelJ.mph
% Version:            COMSOL 5.2.0.166
% Date:               Jun 29 2017, 14:34
% Dimension:          1
% Nodes:              1
% Expressions:        60
% Description:        
% r                       (-muS*gNaS*u23z-DS*u3Tz)*e*2*pi*r/(pi*R^2*ka*E0) @ w=0.01 (-muS*gNaS*u23z-DS*u3Tz)*e*2*pi*r/(pi*R^2*ka*E0) @ w=0.012638 (-muS*gNaS*u23z-DS*u3Tz)*e*2*pi*r/(pi*R^2*ka*E0) @ w=0.015973 (-muS*gNaS*u23z-DS*u3Tz)*e*2*pi*r/(pi*R^2*ka*E0) @ w=0.020188 (-muS*gNaS*u23z-DS*u3Tz)*e*2*pi*r/(pi*R^2*ka*E0) @ w=0.025514 (-muS*gNaS*u23z-DS*u3Tz)*e*2*pi*r/(pi*R^2*ka*E0) @ w=0.032246 (-muS*gNaS*u23z-DS*u3Tz)*e*2*pi*r/(pi*R^2*ka*E0) @ w=0.040754 (-muS*gNaS*u23z-DS*u3Tz)*e*2*pi*r/(pi*R^2*ka*E0) @ w=0.051507 (-muS*gNaS*u23z-DS*u3Tz)*e*2*pi*r/(pi*R^2*ka*E0) @ w=0.065097 (-muS*gNaS*u23z-DS*u3Tz)*e*2*pi*r/(pi*R^2*ka*E0) @ w=0.082272 (-muS*gNaS*u23z-DS*u3Tz)*e*2*pi*r/(pi*R^2*ka*E0) @ w=0.10398 (-muS*gNaS*u23z-DS*u3Tz)*e*2*pi*r/(pi*R^2*ka*E0) @ w=0.13141 (-muS*gNaS*u23z-DS*u3Tz)*e*2*pi*r/(pi*R^2*ka*E0) @ w=0.16609 (-muS*gNaS*u23z-DS*u3Tz)*e*2*pi*r/(pi*R^2*ka*E0) @ w=0.20991 (-muS*gNaS*u23z-DS*u3Tz)*e*2*pi*r/(pi*R^2*ka*E0) @ w=0.26529 (-muS*gNaS*u23z-DS*u3Tz)*e*2*pi*r/(pi*R^2*ka*E0) @ w=0.33529 (-muS*gNaS*u23z-DS*u3Tz)*e*2*pi*r/(pi*R^2*ka*E0) @ w=0.42376 (-muS*gNaS*u23z-DS*u3Tz)*e*2*pi*r/(pi*R^2*ka*E0) @ w=0.53557 (-muS*gNaS*u23z-DS*u3Tz)*e*2*pi*r/(pi*R^2*ka*E0) @ w=0.67688 (-muS*gNaS*u23z-DS*u3Tz)*e*2*pi*r/(pi*R^2*ka*E0) @ w=0.85547 (-muS*gNaS*u23z-DS*u3Tz)*e*2*pi*r/(pi*R^2*ka*E0) @ w=1.0812 (-muS*gNaS*u23z-DS*u3Tz)*e*2*pi*r/(pi*R^2*ka*E0) @ w=1.3664 (-muS*gNaS*u23z-DS*u3Tz)*e*2*pi*r/(pi*R^2*ka*E0) @ w=1.727 (-muS*gNaS*u23z-DS*u3Tz)*e*2*pi*r/(pi*R^2*ka*E0) @ w=2.1826 (-muS*gNaS*u23z-DS*u3Tz)*e*2*pi*r/(pi*R^2*ka*E0) @ w=2.7585 (-muS*gNaS*u23z-DS*u3Tz)*e*2*pi*r/(pi*R^2*ka*E0) @ w=3.4864 (-muS*gNaS*u23z-DS*u3Tz)*e*2*pi*r/(pi*R^2*ka*E0) @ w=4.4062 (-muS*gNaS*u23z-DS*u3Tz)*e*2*pi*r/(pi*R^2*ka*E0) @ w=5.5688 (-muS*gNaS*u23z-DS*u3Tz)*e*2*pi*r/(pi*R^2*ka*E0) @ w=7.0381 (-muS*gNaS*u23z-DS*u3Tz)*e*2*pi*r/(pi*R^2*ka*E0) @ w=8.8951 (-muS*gNaS*u23z-DS*u3Tz)*e*2*pi*r/(pi*R^2*ka*E0) @ w=11.242 (-muS*gNaS*u23z-DS*u3Tz)*e*2*pi*r/(pi*R^2*ka*E0) @ w=14.208 (-muS*gNaS*u23z-DS*u3Tz)*e*2*pi*r/(pi*R^2*ka*E0) @ w=17.957 (-muS*gNaS*u23z-DS*u3Tz)*e*2*pi*r/(pi*R^2*ka*E0) @ w=22.695 (-muS*gNaS*u23z-DS*u3Tz)*e*2*pi*r/(pi*R^2*ka*E0) @ w=28.683 (-muS*gNaS*u23z-DS*u3Tz)*e*2*pi*r/(pi*R^2*ka*E0) @ w=36.251 (-muS*gNaS*u23z-DS*u3Tz)*e*2*pi*r/(pi*R^2*ka*E0) @ w=45.816 (-muS*gNaS*u23z-DS*u3Tz)*e*2*pi*r/(pi*R^2*ka*E0) @ w=57.904 (-muS*gNaS*u23z-DS*u3Tz)*e*2*pi*r/(pi*R^2*ka*E0) @ w=73.182 (-muS*gNaS*u23z-DS*u3Tz)*e*2*pi*r/(pi*R^2*ka*E0) @ w=92.491 (-muS*gNaS*u23z-DS*u3Tz)*e*2*pi*r/(pi*R^2*ka*E0) @ w=116.9 (-muS*gNaS*u23z-DS*u3Tz)*e*2*pi*r/(pi*R^2*ka*E0) @ w=147.74 (-muS*gNaS*u23z-DS*u3Tz)*e*2*pi*r/(pi*R^2*ka*E0) @ w=186.72 (-muS*gNaS*u23z-DS*u3Tz)*e*2*pi*r/(pi*R^2*ka*E0) @ w=235.98 (-muS*gNaS*u23z-DS*u3Tz)*e*2*pi*r/(pi*R^2*ka*E0) @ w=298.25 (-muS*gNaS*u23z-DS*u3Tz)*e*2*pi*r/(pi*R^2*ka*E0) @ w=376.94 (-muS*gNaS*u23z-DS*u3Tz)*e*2*pi*r/(pi*R^2*ka*E0) @ w=476.39 (-muS*gNaS*u23z-DS*u3Tz)*e*2*pi*r/(pi*R^2*ka*E0) @ w=602.09 (-muS*gNaS*u23z-DS*u3Tz)*e*2*pi*r/(pi*R^2*ka*E0) @ w=760.95 (-muS*gNaS*u23z-DS*u3Tz)*e*2*pi*r/(pi*R^2*ka*E0) @ w=961.72 (-muS*gNaS*u23z-DS*u3Tz)*e*2*pi*r/(pi*R^2*ka*E0) @ w=1215.5 (-muS*gNaS*u23z-DS*u3Tz)*e*2*pi*r/(pi*R^2*ka*E0) @ w=1536.2 (-muS*gNaS*u23z-DS*u3Tz)*e*2*pi*r/(pi*R^2*ka*E0) @ w=1941.5 (-muS*gNaS*u23z-DS*u3Tz)*e*2*pi*r/(pi*R^2*ka*E0) @ w=2453.8 (-muS*gNaS*u23z-DS*u3Tz)*e*2*pi*r/(pi*R^2*ka*E0) @ w=3101.2 (-muS*gNaS*u23z-DS*u3Tz)*e*2*pi*r/(pi*R^2*ka*E0) @ w=3919.4 (-muS*gNaS*u23z-DS*u3Tz)*e*2*pi*r/(pi*R^2*ka*E0) @ w=4953.5 (-muS*gNaS*u23z-DS*u3Tz)*e*2*pi*r/(pi*R^2*ka*E0) @ w=6260.5 (-muS*gNaS*u23z-DS*u3Tz)*e*2*pi*r/(pi*R^2*ka*E0) @ w=7912.3 (-muS*gNaS*u23z-DS*u3Tz)*e*2*pi*r/(pi*R^2*ka*E0) @ w=10000
0                         0.0022040117616956905-2.0648191549491417E-5i      0.0022038997514622146-2.6094952267278345E-5i      0.002203720856817415-3.2977580750586855E-5i       0.0022034351591004404-4.1673655047494266E-5i      0.0022029789453361587-5.265908094006833E-5i       0.0022022505731776063-6.653271879725772E-5i       0.002201088011330731-8.40461736927938E-5i         0.002199233268709452-1.061387669822018E-4i        0.002196276345727647-1.33976376845688E-4i         0.0021915676547040737-1.689898679085384E-4i       0.0021840830215621287-2.1290264476291938E-4i      0.0021722202587904317-2.6772463603999433E-4i      0.0021535042443667227-3.356671918479993E-4i       0.002124188029323262-4.188941842659232E-4i        0.0020787831515015364-5.189668024869962E-4i       0.002009675663867192-6.357815859840356E-4i        0.0019072383491425826-7.658245666341789E-4i       0.0017612144064588138-8.99872714202732E-4i        0.0015642960949896181-0.0010211440098308064i      0.001317890651346476-0.0011061749469801609i       0.0010373832955658897-0.0011308180254026839i      7.517539049263294E-4-0.0010803166104089053i       4.950401162339314E-4-9.570225212617906E-4i        2.9471393541192126E-4-7.79490282036009E-4i        1.6507104268241867E-4-5.745186796798544E-4i       1.0769761086800274E-4-3.6925430079762955E-4i      1.146503092898451E-4-1.8735580403827866E-4i       1.7035567703983085E-4-4.74189487972386E-5i        2.527547076960427E-4+3.964525713888425E-5i        3.3692693473761335E-4+7.423951365159498E-5i       4.0211156586616477E-4+6.895018144868237E-5i       4.384614744576815E-4+4.38460746351414E-5i         4.488840499415132E-4+1.805877161716997E-5i        4.4465030091836357E-4+2.493459669348158E-6i       4.375377356235888E-4-2.1158965519089907E-6i       4.337149143102118E-4-1.0899428890796552E-6i       4.332119826441558E-4+4.800811868899235E-7i        4.33734963248199E-4+9.207172404698251E-7i         4.340184848695242E-4+8.10424450988333E-7i         4.3409712838143573E-4+7.393686556482332E-7i       4.341881123071033E-4+7.355191190597696E-7i        4.3429930912342556E-4+7.243530567422082E-7i       4.344054967800489E-4+7.068772071865724E-7i        4.345080703130187E-4+6.904005625245748E-7i        4.34608320567986E-4+6.741139898725736E-7i         4.3470570272522547E-4+6.579903579649504E-7i       4.34800149306909E-4+6.420933548912109E-7i         4.348911114979017E-4+6.259969675510243E-7i        4.349769891966901E-4+6.096126392495855E-7i        4.3505546385045615E-4+5.940944047482871E-7i       4.351243053890304E-4+5.822096531236845E-7i        4.351820924653776E-4+5.781154786722568E-7i        4.352285454497545E-4+5.868971989729102E-7i        4.352645146063682E-4+6.14148422266468E-7i         4.352917739951387E-4+6.656569035347002E-7i        4.353125678556185E-4+7.472897756327202E-7i        4.3532903035747747E-4+8.652469729179988E-7i       4.3534272065939817E-4+1.0267317975265929E-6i      4.353544668750955E-4+1.2409007506823086E-6i       4.3536456217635634E-4+1.5198635665956628E-6i
